TITLE="Electric Field"
VARIABLES = "X" "Y" "ReEx" "ImEx" "ReEy" "ImEy" "ReEz" "ImEz"
ZONE I=100, J=100, DATAPACKING=POINT
-700 -700 -1.13226e-009 -2.17193e-010 1.1589e-009 2.27478e-010 9.16856e-011 4.87973e-011
-700 -686 -1.17852e-009 -2.40315e-010 1.23052e-009 2.53373e-010 8.82662e-011 5.11205e-011
-700 -672 -1.15903e-009 -2.78859e-010 1.21666e-009 2.99754e-010 7.54682e-011 5.15631e-011
-700 -658 -1.18457e-009 -3.0074e-010 1.272e-009 3.23464e-010 6.06025e-011 3.60259e-011
-700 -644 -1.21011e-009 -3.22622e-010 1.32733e-009 3.47174e-010 4.57367e-011 2.04886e-011
-700 -630 -1.23566e-009 -3.44504e-010 1.38266e-009 3.70884e-010 3.08709e-011 4.9514e-012
-700 -616 -1.2612e-009 -3.66386e-010 1.438e-009 3.94593e-010 1.60051e-011 -1.05858e-011
-700 -602 -1.28674e-009 -3.88267e-010 1.49333e-009 4.18303e-010 1.13931e-012 -2.61231e-011
-700 -588 -1.31229e-009 -4.10149e-010 1.54866e-009 4.42013e-010 -1.37265e-011 -4.16603e-011
-700 -574 -1.33783e-009 -4.32031e-010 1.604e-009 4.65723e-010 -2.85923e-011 -5.71976e-011
-700 -560 -1.36338e-009 -4.53912e-010 1.65933e-009 4.89432e-010 -4.3458e-011 -7.27348e-011
-700 -546 -1.38892e-009 -4.75794e-010 1.71466e-009 5.13142e-010 -5.83238e-011 -8.82721e-011
-700 -532 -1.41446e-009 -4.97676e-010 1.76999e-009 5.36852e-010 -7.31896e-011 -1.03809e-010
-700 -518 -1.42269e-009 -4.75034e-010 1.85248e-009 6.25234e-010 8.15951e-011 6.36969e-011
-700 -504 -1.44599e-009 -5.1585e-010 1.96609e-009 7.17837e-010 7.43256e-011 5.08502e-011
-700 -490 -1.46928e-009 -5.56666e-010 2.07971e-009 8.1044e-010 6.70561e-011 3.80035e-011
-700 -476 -1.49258e-009 -5.97481e-010 2.19332e-009 9.03043e-010 5.97867e-011 2.51568e-011
-700 -462 -1.51588e-009 -6.38297e-010 2.30694e-009 9.95646e-010 5.25172e-011 1.23102e-011
-700 -448 -1.51862e-009 -6.55561e-010 2.39582e-009 1.05489e-009 2.9977e-011 -1.45449e-011
-700 -434 -1.50835e-009 -6.71411e-010 2.46424e-009 1.11241e-009 1.46439e-013 -4.23265e-011
-700 -420 -1.49808e-009 -6.87261e-010 2.53266e-009 1.16992e-009 -2.96841e-011 -7.0108e-011
-700 -406 -1.48781e-009 -7.03111e-010 2.60108e-009 1.22744e-009 -5.95147e-011 -9.78896e-011
-700 -392 -1.47754e-009 -7.18961e-010 2.6695e-009 1.28496e-009 -8.93453e-011 -1.25671e-010
-700 -378 -1.46727e-009 -7.34811e-010 2.73792e-009 1.34247e-009 -1.19176e-010 -1.53453e-010
-700 -364 -1.457e-009 -7.50661e-010 2.80634e-009 1.39999e-009 -1.49006e-010 -1.81234e-010
-700 -350 -1.44673e-009 -7.66511e-010 2.87476e-009 1.45751e-009 -1.78837e-010 -2.09016e-010
-700 -336 -1.43646e-009 -7.82362e-010 2.94318e-009 1.51503e-009 -2.08668e-010 -2.36797e-010
-700 -322 -1.4727e-009 -7.88636e-010 2.95305e-009 1.58896e-009 -1.13207e-011 4.61955e-011
-700 -308 -1.43844e-009 -8.11624e-010 3.08982e-009 1.73753e-009 2.32256e-012 3.49317e-011
-700 -294 -1.40419e-009 -8.34612e-010 3.22659e-009 1.8861e-009 1.59658e-011 2.3668e-011
-700 -280 -1.39672e-009 -8.4077e-010 3.39037e-009 2.00844e-009 2.56747e-011 1.5756e-011
-700 -266 -1.34327e-009 -8.18235e-010 3.47801e-009 2.07315e-009 4.40613e-011 1.50069e-011
-700 -252 -1.28983e-009 -7.957e-010 3.56564e-009 2.13787e-009 6.2448e-011 1.42579e-011
-700 -238 -1.23639e-009 -7.73165e-010 3.65328e-009 2.20258e-009 8.08347e-011 1.35088e-011
-700 -224 -1.18295e-009 -7.5063e-010 3.74092e-009 2.26729e-009 9.92214e-011 1.27597e-011
-700 -210 -1.12951e-009 -7.28095e-010 3.82855e-009 2.332e-009 1.17608e-010 1.20106e-011
-700 -196 -1.07606e-009 -7.0556e-010 3.91619e-009 2.39672e-009 1.35995e-010 1.12615e-011
-700 -182 -1.02262e-009 -6.83025e-010 4.00383e-009 2.46143e-009 1.54381e-010 1.05124e-011
-700 -168 -9.69181e-010 -6.6049e-010 4.09147e-009 2.52614e-009 1.72768e-010 9.76334e-012
-700 -154 -9.1574e-010 -6.37955e-010 4.1791e-009 2.59086e-009 1.91155e-010 9.01426e-012
-700 -140 -8.94508e-010 -5.56935e-010 4.11218e-009 2.77112e-009 1.69593e-010 4.83524e-010
-700 -126 -8.04523e-010 -5.22059e-010 4.17527e-009 2.854e-009 1.99747e-010 4.72476e-010
-700 -112 -7.14539e-010 -4.87183e-010 4.23837e-009 2.93687e-009 2.29901e-010 4.61429e-010
-700 -98 -6.24554e-010 -4.52308e-010 4.30146e-009 3.01975e-009 2.60055e-010 4.50381e-010
-700 -84 -5.34569e-010 -4.17432e-010 4.36456e-009 3.10262e-009 2.90209e-010 4.39334e-010
-700 -70 -4.44585e-010 -3.82556e-010 4.42765e-009 3.18549e-009 3.20363e-010 4.28287e-010
-700 -56 -3.546e-010 -3.4768e-010 4.49075e-009 3.26837e-009 3.50517e-010 4.17239e-010
-700 -42 -2.89892e-010 -2.17979e-010 4.56699e-009 3.12055e-009 3.41295e-010 3.78782e-010
-700 -28 -2.04936e-010 -1.64139e-010 4.54622e-009 3.08611e-009 2.69501e-010 3.33399e-010
-700 -14 -1.19979e-010 -1.103e-010 4.52546e-009 3.05166e-009 1.97708e-010 2.88016e-010
-700 0 -3.50229e-011 -5.64599e-011 4.5047e-009 3.01722e-009 1.25914e-010 2.42633e-010
-700 14 4.99335e-011 -2.62008e-012 4.48394e-009 2.98278e-009 5.41207e-011 1.9725e-010
-700 28 1.3489e-010 5.12197e-011 4.46318e-009 2.94834e-009 -1.76728e-011 1.51867e-010
-700 42 2.19846e-010 1.0506e-010 4.44242e-009 2.91389e-009 -8.94663e-011 1.06484e-010
-700 56 3.04803e-010 1.58899e-010 4.42166e-009 2.87945e-009 -1.6126e-010 6.11015e-011
-700 70 3.96922e-010 3.41728e-010 4.40165e-009 3.03413e-009 1.18363e-010 4.34483e-010
-700 84 4.91143e-010 3.74069e-010 4.33094e-009 2.9614e-009 9.94297e-011 3.56971e-010
-700 98 5.85363e-010 4.0641e-010 4.26023e-009 2.88867e-009 8.04969e-011 2.79459e-010
-700 112 6.79584e-010 4.38751e-010 4.18952e-009 2.81594e-009 6.15641e-011 2.01947e-010
-700 126 7.73804e-010 4.71092e-010 4.11881e-009 2.74321e-009 4.26313e-011 1.24436e-010
-700 140 8.38412e-010 6.10117e-010 4.08508e-009 2.54511e-009 2.30434e-010 4.79398e-010
-700 154 9.03372e-010 6.4299e-010 4.04558e-009 2.52854e-009 1.81991e-010 4.15311e-010
-700 168 9.68333e-010 6.75864e-010 4.00608e-009 2.51197e-009 1.33548e-010 3.51223e-010
-700 182 1.03329e-009 7.08738e-010 3.96658e-009 2.4954e-009 8.51053e-011 2.87136e-010
-700 196 1.09825e-009 7.41611e-010 3.92708e-009 2.47883e-009 3.66625e-011 2.23049e-010
-700 210 1.16321e-009 7.74485e-010 3.88758e-009 2.46226e-009 -1.17804e-011 1.58962e-010
-700 224 1.22818e-009 8.07359e-010 3.84808e-009 2.44569e-009 -6.02232e-011 9.48747e-011
-700 238 1.29314e-009 8.40232e-010 3.80858e-009 2.42911e-009 -1.08666e-010 3.07875e-011
-700 252 1.35374e-009 8.60234e-010 3.75753e-009 2.38648e-009 -1.46196e-010 -2.55544e-011
-700 266 1.3777e-009 8.29898e-010 3.62438e-009 2.23988e-009 -1.56632e-010 -6.19293e-011
-700 280 1.40166e-009 7.99561e-010 3.49123e-009 2.09328e-009 -1.67068e-010 -9.83042e-011
-700 294 1.42563e-009 7.69225e-010 3.35807e-009 1.94669e-009 -1.77504e-010 -1.34679e-010
-700 308 1.44959e-009 7.38888e-010 3.22492e-009 1.80009e-009 -1.8794e-010 -1.71054e-010
-700 322 1.47356e-009 7.08552e-010 3.09177e-009 1.65349e-009 -1.98376e-010 -2.07429e-010
-700 336 1.49752e-009 6.78215e-010 2.95862e-009 1.5069e-009 -2.08812e-010 -2.43804e-010
-700 350 1.5352e-009 7.87197e-010 2.84497e-009 1.26899e-009 8.30336e-012 1.47021e-010
-700 364 1.54303e-009 7.81073e-010 2.79077e-009 1.25388e-009 -2.29345e-012 1.18742e-010
-700 378 1.55086e-009 7.74949e-010 2.73657e-009 1.23877e-009 -1.28903e-011 9.04626e-011
-700 392 1.55869e-009 7.68825e-010 2.68237e-009 1.22367e-009 -2.34871e-011 6.21831e-011
-700 406 1.56652e-009 7.62701e-010 2.62817e-009 1.20856e-009 -3.40839e-011 3.39037e-011
-700 420 1.57435e-009 7.56577e-010 2.57397e-009 1.19345e-009 -4.46807e-011 5.62428e-012
-700 434 1.58218e-009 7.50453e-010 2.51976e-009 1.17834e-009 -5.52775e-011 -2.26551e-011
-700 448 1.59001e-009 7.44329e-010 2.46556e-009 1.16324e-009 -6.58743e-011 -5.09346e-011
-700 462 1.57231e-009 6.97189e-010 2.36943e-009 1.07869e-009 -7.57496e-011 -7.75408e-011
-700 476 1.54821e-009 6.58384e-010 2.26737e-009 1.00802e-009 -6.55254e-011 -6.63802e-011
-700 490 1.52412e-009 6.1958e-010 2.16531e-009 9.37353e-010 -5.53012e-011 -5.52197e-011
-700 504 1.50003e-009 5.80775e-010 2.06326e-009 8.66684e-010 -4.5077e-011 -4.40591e-011
-700 518 1.47593e-009 5.4197e-010 1.9612e-009 7.96015e-010 -3.48528e-011 -3.28985e-011
-700 532 1.45184e-009 5.03166e-010 1.85914e-009 7.25346e-010 -2.46286e-011 -2.1738e-011
-700 546 1.42774e-009 4.64361e-010 1.75708e-009 6.54676e-010 -1.44045e-011 -1.05774e-011
-700 560 1.40365e-009 4.25556e-010 1.65502e-009 5.84007e-010 -4.18026e-012 5.83174e-013
-700 574 1.37956e-009 3.86752e-010 1.55296e-009 5.13338e-010 6.04394e-012 1.17437e-011
-700 588 1.34761e-009 3.76535e-010 1.52241e-009 4.18218e-010 1.06481e-011 -2.88843e-011
-700 602 1.32364e-009 3.60956e-010 1.47107e-009 3.97682e-010 1.09569e-011 -2.70822e-011
-700 616 1.29967e-009 3.45377e-010 1.41973e-009 3.77146e-010 1.12657e-011 -2.52801e-011
-700 630 1.2757e-009 3.29797e-010 1.36839e-009 3.5661e-010 1.15745e-011 -2.3478e-011
-700 644 1.25173e-009 3.14218e-010 1.31705e-009 3.36074e-010 1.18833e-011 -2.1676e-011
-700 658 1.22776e-009 2.98639e-010 1.26572e-009 3.15538e-010 1.21921e-011 -1.98739e-011
-700 672 1.2038e-009 2.83059e-010 1.21438e-009 2.95003e-010 1.25009e-011 -1.80718e-011
-700 686 1.17983e-009 2.6748e-010 1.16304e-009 2.74467e-010 1.28097e-011 -1.62698e-011
-686 -700 -1.17997e-009 -2.39626e-010 1.18058e-009 2.43417e-010 9.08869e-011 5.3082e-011
-686 -686 -1.22623e-009 -2.62748e-010 1.2522e-009 2.69312e-010 8.74675e-011 5.54052e-011
-686 -672 -1.27249e-009 -2.8587e-010 1.32382e-009 2.95207e-010 8.4048e-011 5.77285e-011
-686 -658 -1.25857e-009 -3.34187e-010 1.32028e-009 3.54508e-010 6.96066e-011 5.48362e-011
-686 -644 -1.28412e-009 -3.56069e-010 1.37561e-009 3.78217e-010 5.47408e-011 3.9299e-011
-686 -630 -1.30966e-009 -3.7795e-010 1.43095e-009 4.01927e-010 3.9875e-011 2.37617e-011
-686 -616 -1.33521e-009 -3.99832e-010 1.48628e-009 4.25637e-010 2.50092e-011 8.22448e-012
-686 -602 -1.36075e-009 -4.21714e-010 1.54161e-009 4.49347e-010 1.01434e-011 -7.31276e-012
-686 -588 -1.38629e-009 -4.43596e-010 1.59695e-009 4.73056e-010 -4.72234e-012 -2.285e-011
-686 -574 -1.41184e-009 -4.65477e-010 1.65228e-009 4.96766e-010 -1.95881e-011 -3.83872e-011
-686 -560 -1.43738e-009 -4.87359e-010 1.70761e-009 5.20476e-010 -3.44539e-011 -5.39245e-011
-686 -546 -1.46293e-009 -5.09241e-010 1.76294e-009 5.44186e-010 -4.93197e-011 -6.94617e-011
-686 -532 -1.48847e-009 -5.31122e-010 1.81828e-009 5.67895e-010 -6.41855e-011 -8.4999e-011
-686 -518 -1.50985e-009 -5.3449e-010 1.92914e-009 6.98442e-010 7.16082e-011 5.65926e-011
-686 -504 -1.53315e-009 -5.75305e-010 2.04276e-009 7.91045e-010 6.43387e-011 4.37459e-011
-686 -490 -1.55645e-009 -6.16121e-010 2.15637e-009 8.83648e-010 5.70692e-011 3.08992e-011
-686 -476 -1.57974e-009 -6.56937e-010 2.26999e-009 9.76251e-010 4.97998e-011 1.80526e-011
-686 -462 -1.60304e-009 -6.97753e-010 2.3836e-009 1.06885e-009 4.25303e-011 5.20588e-012
-686 -448 -1.63417e-009 -7.42671e-010 2.51314e-009 1.17002e-009 3.78603e-011 -6.062e-012
-686 -434 -1.6239e-009 -7.58521e-010 2.58156e-009 1.22754e-009 8.02974e-012 -3.38436e-011
-686 -420 -1.61363e-009 -7.74371e-010 2.64998e-009 1.28506e-009 -2.18008e-011 -6.16251e-011
-686 -406 -1.60336e-009 -7.90221e-010 2.7184e-009 1.34257e-009 -5.16314e-011 -8.94067e-011
-686 -392 -1.59309e-009 -8.06071e-010 2.78682e-009 1.40009e-009 -8.1462e-011 -1.17188e-010
-686 -378 -1.58282e-009 -8.21921e-010 2.85524e-009 1.45761e-009 -1.11293e-010 -1.4497e-010
-686 -364 -1.57255e-009 -8.37771e-010 2.92366e-009 1.51512e-009 -1.41123e-010 -1.72751e-010
-686 -350 -1.56228e-009 -8.53622e-010 2.99208e-009 1.57264e-009 -1.70954e-010 -2.00533e-010
-686 -336 -1.55201e-009 -8.69472e-010 3.0605e-009 1.63016e-009 -2.00784e-010 -2.28315e-010
-686 -322 -1.57074e-009 -8.78558e-010 3.12192e-009 1.7781e-009 -4.27014e-012 5.25447e-011
-686 -308 -1.53649e-009 -9.01545e-010 3.25869e-009 1.92667e-009 9.3731e-012 4.1281e-011
-686 -294 -1.50224e-009 -9.24533e-010 3.39546e-009 2.07524e-009 2.30163e-011 3.00172e-011
-686 -280 -1.46798e-009 -9.4752e-010 3.53224e-009 2.22381e-009 3.66596e-011 1.87535e-011
-686 -266 -1.42829e-009 -8.99622e-010 3.65268e-009 2.27596e-009 5.1802e-011 2.00322e-011
-686 -252 -1.37485e-009 -8.77087e-010 3.74032e-009 2.34068e-009 7.01887e-011 1.92831e-011
-686 -238 -1.32141e-009 -8.54552e-010 3.82795e-009 2.40539e-009 8.85754e-011 1.8534e-011
-686 -224 -1.26797e-009 -8.32017e-010 3.91559e-009 2.4701e-009 1.06962e-010 1.77849e-011
-686 -210 -1.21452e-009 -8.09482e-010 4.00323e-009 2.53482e-009 1.25349e-010 1.70358e-011
-686 -196 -1.16108e-009 -7.86947e-010 4.09087e-009 2.59953e-009 1.43735e-010 1.62867e-011
-686 -182 -1.10764e-009 -7.64412e-010 4.1785e-009 2.66424e-009 1.62122e-010 1.55377e-011
-686 -168 -1.0542e-009 -7.41877e-010 4.26614e-009 2.72896e-009 1.80509e-010 1.47886e-011
-686 -154 -1.02194e-009 -6.30822e-010 4.27481e-009 2.97591e-009 1.11231e-010 4.92331e-010
-686 -140 -9.31954e-010 -5.95947e-010 4.33791e-009 3.05879e-009 1.41385e-010 4.81284e-010
-686 -126 -8.4197e-010 -5.61071e-010 4.401e-009 3.14166e-009 1.71538e-010 4.70236e-010
-686 -112 -7.51985e-010 -5.26195e-010 4.4641e-009 3.22454e-009 2.01692e-010 4.59189e-010
-686 -98 -6.62e-010 -4.91319e-010 4.52719e-009 3.30741e-009 2.31846e-010 4.48141e-010
-686 -84 -5.72016e-010 -4.56443e-010 4.59029e-009 3.39028e-009 2.62e-010 4.37094e-010
-686 -70 -4.82031e-010 -4.21568e-010 4.65338e-009 3.47316e-009 2.92154e-010 4.26046e-010
-686 -56 -3.92046e-010 -3.86692e-010 4.71648e-009 3.55603e-009 3.22308e-010 4.14999e-010
-686 -42 -3.02062e-010 -3.51816e-010 4.77958e-009 3.6389e-009 3.52462e-010 4.03951e-010
-686 -28 -2.11493e-010 -1.7042e-010 4.75262e-009 3.34262e-009 2.85851e-010 3.4135e-010
-686 -14 -1.26536e-010 -1.1658e-010 4.73186e-009 3.30818e-009 2.14057e-010 2.95967e-010
-686 0 -4.15799e-011 -6.27403e-011 4.7111e-009 3.27374e-009 1.42264e-010 2.50585e-010
-686 14 4.33765e-011 -8.90047e-012 4.69034e-009 3.2393e-009 7.04703e-011 2.05202e-010
-686 28 1.28333e-010 4.49393e-011 4.66958e-009 3.20485e-009 -1.32321e-012 1.59819e-010
-686 42 2.13289e-010 9.87791e-011 4.64882e-009 3.17041e-009 -7.31167e-011 1.14436e-010
-686 56 2.98246e-010 1.52619e-010 4.62806e-009 3.13597e-009 -1.4491e-010 6.90527e-011
-686 70 4.43661e-010 3.86413e-010 4.64346e-009 3.36129e-009 1.15613e-010 4.50761e-010
-686 84 5.37882e-010 4.18754e-010 4.57275e-009 3.28857e-009 9.66799e-011 3.73249e-010
-686 98 6.32102e-010 4.51095e-010 4.50204e-009 3.21584e-009 7.77471e-011 2.95737e-010
-686 112 7.26323e-010 4.83436e-010 4.43133e-009 3.14311e-009 5.88143e-011 2.18225e-010
-686 126 8.20543e-010 5.15777e-010 4.36062e-009 3.07038e-009 3.98815e-011 1.40713e-010
-686 140 9.14764e-010 5.48118e-010 4.28991e-009 2.99765e-009 2.09487e-011 6.32014e-011
-686 154 9.97379e-010 7.32481e-010 4.2258e-009 2.75104e-009 1.63197e-010 4.0458e-010
-686 168 1.06234e-009 7.65355e-010 4.1863e-009 2.73447e-009 1.14754e-010 3.40493e-010
-686 182 1.1273e-009 7.98228e-010 4.1468e-009 2.71789e-009 6.63111e-011 2.76405e-010
-686 196 1.19226e-009 8.31102e-010 4.1073e-009 2.70132e-009 1.78683e-011 2.12318e-010
-686 210 1.25722e-009 8.63976e-010 4.0678e-009 2.68475e-009 -3.05746e-011 1.48231e-010
-686 224 1.32218e-009 8.96849e-010 4.02831e-009 2.66818e-009 -7.90175e-011 8.41439e-011
-686 238 1.38714e-009 9.29723e-010 3.98881e-009 2.65161e-009 -1.2746e-010 2.00567e-011
-686 252 1.43427e-009 9.22804e-010 3.90594e-009 2.55375e-009 -1.47993e-010 -2.36682e-011
-686 266 1.45824e-009 8.92467e-010 3.77279e-009 2.40715e-009 -1.58429e-010 -6.00432e-011
-686 280 1.4822e-009 8.62131e-010 3.63964e-009 2.26056e-009 -1.68864e-010 -9.64181e-011
-686 294 1.50617e-009 8.31794e-010 3.50648e-009 2.11396e-009 -1.793e-010 -1.32793e-010
-686 308 1.53013e-009 8.01458e-010 3.37333e-009 1.96736e-009 -1.89736e-010 -1.69168e-010
-686 322 1.55409e-009 7.71121e-010 3.24018e-009 1.82077e-009 -2.00172e-010 -2.05543e-010
-686 336 1.57806e-009 7.40785e-010 3.10703e-009 1.67417e-009 -2.10608e-010 -2.41918e-010
-686 350 1.62588e-009 8.40641e-010 2.94466e-009 1.34654e-009 -1.46612e-011 1.10942e-010
-686 364 1.6337e-009 8.34517e-010 2.89046e-009 1.33143e-009 -2.5258e-011 8.26624e-011
-686 378 1.64153e-009 8.28393e-010 2.83626e-009 1.31633e-009 -3.58548e-011 5.4383e-011
-686 392 1.64936e-009 8.22269e-010 2.78205e-009 1.30122e-009 -4.64516e-011 2.61035e-011
-686 406 1.65719e-009 8.16144e-010 2.72785e-009 1.28611e-009 -5.70484e-011 -2.17589e-012
-686 420 1.66502e-009 8.1002e-010 2.67365e-009 1.27101e-009 -6.76453e-011 -3.04553e-011
-686 434 1.67285e-009 8.03896e-010 2.61945e-009 1.2559e-009 -7.82421e-011 -5.87347e-011
-686 448 1.68068e-009 7.97772e-010 2.56525e-009 1.24079e-009 -8.88389e-011 -8.70142e-011
-686 462 1.64182e-009 7.29682e-010 2.43696e-009 1.12064e-009 -8.6835e-011 -9.06107e-011
-686 476 1.61773e-009 6.90878e-010 2.3349e-009 1.04997e-009 -7.66108e-011 -7.94502e-011
-686 490 1.59363e-009 6.52073e-010 2.23284e-009 9.79304e-010 -6.63866e-011 -6.82896e-011
-686 504 1.56954e-009 6.13268e-010 2.13078e-009 9.08634e-010 -5.61624e-011 -5.7129e-011
-686 518 1.54544e-009 5.74464e-010 2.02872e-009 8.37965e-010 -4.59382e-011 -4.59685e-011
-686 532 1.52135e-009 5.35659e-010 1.92666e-009 7.67296e-010 -3.5714e-011 -3.48079e-011
-686 546 1.49726e-009 4.96855e-010 1.8246e-009 6.96627e-010 -2.54898e-011 -2.36473e-011
-686 560 1.47316e-009 4.5805e-010 1.72254e-009 6.25958e-010 -1.52656e-011 -1.24868e-011
-686 574 1.44907e-009 4.19245e-010 1.62048e-009 5.55288e-010 -5.04142e-012 -1.32619e-012
-686 588 1.42024e-009 4.05765e-010 1.56442e-009 4.4124e-010 4.75191e-012 -3.47925e-011
-686 602 1.39627e-009 3.90186e-010 1.51308e-009 4.20705e-010 5.06071e-012 -3.29904e-011
-686 616 1.3723e-009 3.74607e-010 1.46175e-009 4.00169e-010 5.36951e-012 -3.11883e-011
-686 630 1.34833e-009 3.59027e-010 1.41041e-009 3.79633e-010 5.67831e-012 -2.93863e-011
-686 644 1.32436e-009 3.43448e-010 1.35907e-009 3.59097e-010 5.98711e-012 -2.75842e-011
-686 658 1.30039e-009 3.27869e-010 1.30773e-009 3.38561e-010 6.29591e-012 -2.57821e-011
-686 672 1.27642e-009 3.12289e-010 1.25639e-009 3.18025e-010 6.60471e-012 -2.39801e-011
-686 686 1.25245e-009 2.9671e-010 1.20506e-009 2.97489e-010 6.91351e-012 -2.2178e-011
-672 -700 -1.22768e-009 -2.62059e-010 1.20226e-009 2.59355e-010 9.00882e-011 5.73667e-011
-672 -686 -1.27394e-009 -2.85181e-010 1.27388e-009 2.8525e-010 8.66687e-011 5.96899e-011
-672 -672 -1.3202e-009 -3.08303e-010 1.34551e-009 3.11146e-010 8.32493e-011 6.20131e-011
-672 -658 -1.36646e-009 -3.31426e-010 1.41713e-009 3.37041e-010 7.98299e-011 6.43364e-011
-672 -644 -1.35812e-009 -3.89515e-010 1.4239e-009 4.09261e-010 6.37449e-011 5.81093e-011
-672 -630 -1.38367e-009 -4.11397e-010 1.47923e-009 4.32971e-010 4.88791e-011 4.2572e-011
-672 -616 -1.40921e-009 -4.33279e-010 1.53456e-009 4.5668e-010 3.40134e-011 2.70348e-011
-672 -602 -1.43475e-009 -4.5516e-010 1.58989e-009 4.8039e-010 1.91476e-011 1.14976e-011
-672 -588 -1.4603e-009 -4.77042e-010 1.64523e-009 5.041e-010 4.28179e-012 -4.03969e-012
-672 -574 -1.48584e-009 -4.98924e-010 1.70056e-009 5.2781e-010 -1.0584e-011 -1.95769e-011
-672 -560 -1.51139e-009 -5.20806e-010 1.75589e-009 5.51519e-010 -2.54498e-011 -3.51142e-011
-672 -546 -1.53693e-009 -5.42687e-010 1.81123e-009 5.75229e-010 -4.03156e-011 -5.06514e-011
-672 -532 -1.57372e-009 -5.53129e-010 1.89219e-009 6.79046e-010 6.88908e-011 6.2335e-011
-672 -518 -1.59701e-009 -5.93945e-010 2.00581e-009 7.71649e-010 6.16213e-011 4.94883e-011
-672 -504 -1.62031e-009 -6.34761e-010 2.11943e-009 8.64252e-010 5.43518e-011 3.66416e-011
-672 -490 -1.64361e-009 -6.75577e-010 2.23304e-009 9.56855e-010 4.70823e-011 2.3795e-011
-672 -476 -1.66691e-009 -7.16393e-010 2.34666e-009 1.04946e-009 3.98129e-011 1.09483e-011
-672 -462 -1.6902e-009 -7.57208e-010 2.46027e-009 1.14206e-009 3.25434e-011 -1.8984e-012
-672 -448 -1.7135e-009 -7.98024e-010 2.57389e-009 1.23466e-009 2.52739e-011 -1.47451e-011
-672 -434 -1.73945e-009 -8.45631e-010 2.69889e-009 1.34267e-009 1.5913e-011 -2.53607e-011
-672 -420 -1.72918e-009 -8.61481e-010 2.76731e-009 1.40019e-009 -1.39175e-011 -5.31422e-011
-672 -406 -1.71891e-009 -8.77331e-010 2.83573e-009 1.45771e-009 -4.37481e-011 -8.09238e-011
-672 -392 -1.70864e-009 -8.93181e-010 2.90415e-009 1.51522e-009 -7.35787e-011 -1.08705e-010
-672 -378 -1.69837e-009 -9.09031e-010 2.97257e-009 1.57274e-009 -1.03409e-010 -1.36487e-010
-672 -364 -1.6881e-009 -9.24882e-010 3.04099e-009 1.63026e-009 -1.3324e-010 -1.64269e-010
-672 -350 -1.67783e-009 -9.40732e-010 3.10941e-009 1.68777e-009 -1.6307e-010 -1.9205e-010
-672 -336 -1.70304e-009 -9.45491e-010 3.15402e-009 1.81868e-009 -1.08628e-011 7.01577e-011
-672 -322 -1.66879e-009 -9.68479e-010 3.29079e-009 1.96725e-009 2.7804e-012 5.8894e-011
-672 -308 -1.63453e-009 -9.91466e-010 3.42756e-009 2.11582e-009 1.64236e-011 4.76302e-011
-672 -294 -1.60028e-009 -1.01445e-009 3.56433e-009 2.26439e-009 3.00669e-011 3.63665e-011
-672 -280 -1.56603e-009 -1.03744e-009 3.7011e-009 2.41296e-009 4.37101e-011 2.51027e-011
-672 -266 -1.53177e-009 -1.06043e-009 3.83788e-009 2.56153e-009 5.73533e-011 1.3839e-011
-672 -252 -1.45987e-009 -9.58473e-010 3.91499e-009 2.54349e-009 7.79294e-011 2.43083e-011
-672 -238 -1.40642e-009 -9.35938e-010 4.00263e-009 2.6082e-009 9.6316e-011 2.35592e-011
-672 -224 -1.35298e-009 -9.13403e-010 4.09027e-009 2.67291e-009 1.14703e-010 2.28101e-011
-672 -210 -1.29954e-009 -8.90868e-010 4.1779e-009 2.73763e-009 1.33089e-010 2.20611e-011
-672 -196 -1.2461e-009 -8.68333e-010 4.26554e-009 2.80234e-009 1.51476e-010 2.1312e-011
-672 -182 -1.19266e-009 -8.45798e-010 4.35318e-009 2.86705e-009 1.69863e-010 2.05629e-011
-672 -168 -1.13922e-009 -8.23263e-010 4.44082e-009 2.93177e-009 1.88249e-010 1.98138e-011
-672 -154 -1.05939e-009 -6.69834e-010 4.50054e-009 3.26358e-009 8.30219e-011 4.90091e-010
-672 -140 -9.69401e-010 -6.34958e-010 4.56363e-009 3.34645e-009 1.13176e-010 4.79043e-010
-672 -126 -8.79416e-010 -6.00082e-010 4.62673e-009 3.42933e-009 1.4333e-010 4.67996e-010
-672 -112 -7.89431e-010 -5.65207e-010 4.68983e-009 3.5122e-009 1.73484e-010 4.56948e-010
-672 -98 -6.99447e-010 -5.30331e-010 4.75292e-009 3.59507e-009 2.03638e-010 4.45901e-010
-672 -84 -6.09462e-010 -4.95455e-010 4.81602e-009 3.67795e-009 2.33791e-010 4.34853e-010
-672 -70 -5.19478e-010 -4.60579e-010 4.87911e-009 3.76082e-009 2.63945e-010 4.23806e-010
-672 -56 -4.29493e-010 -4.25704e-010 4.94221e-009 3.84369e-009 2.94099e-010 4.12759e-010
-672 -42 -3.39508e-010 -3.90828e-010 5.0053e-009 3.92657e-009 3.24253e-010 4.01711e-010
-672 -28 -2.1805e-010 -1.767e-010 4.95902e-009 3.59914e-009 3.022e-010 3.49302e-010
-672 -14 -1.33093e-010 -1.2286e-010 4.93826e-009 3.5647e-009 2.30407e-010 3.03919e-010
-672 0 -4.81369e-011 -6.90207e-011 4.9175e-009 3.53026e-009 1.58613e-010 2.58536e-010
-672 14 3.68195e-011 -1.51809e-011 4.89674e-009 3.49581e-009 8.68199e-011 2.13153e-010
-672 28 1.21776e-010 3.86589e-011 4.87598e-009 3.46137e-009 1.50264e-011 1.6777e-010
-672 42 2.06732e-010 9.24987e-011 4.85522e-009 3.42693e-009 -5.67671e-011 1.22387e-010
-672 56 3.96179e-010 3.98758e-010 4.95598e-009 3.76119e-009 1.31796e-010 5.44551e-010
-672 70 4.904e-010 4.31099e-010 4.88527e-009 3.68846e-009 1.12863e-010 4.67039e-010
-672 84 5.84621e-010 4.6344e-010 4.81456e-009 3.61573e-009 9.39301e-011 3.89527e-010
-672 98 6.78841e-010 4.9578e-010 4.74385e-009 3.54301e-009 7.49973e-011 3.12015e-010
-672 112 7.73062e-010 5.28121e-010 4.67314e-009 3.47028e-009 5.60645e-011 2.34503e-010
-672 126 8.67282e-010 5.60462e-010 4.60243e-009 3.39755e-009 3.71317e-011 1.56991e-010
-672 140 9.61503e-010 5.92803e-010 4.53172e-009 3.32482e-009 1.81989e-011 7.94792e-011
-672 154 1.09138e-009 8.21972e-010 4.40603e-009 2.97353e-009 1.44403e-010 3.93849e-010
-672 168 1.15635e-009 8.54845e-010 4.36653e-009 2.95696e-009 9.59598e-011 3.29762e-010
-672 182 1.22131e-009 8.87719e-010 4.32703e-009 2.94039e-009 4.75169e-011 2.65675e-010
-672 196 1.28627e-009 9.20593e-010 4.28753e-009 2.92382e-009 -9.25921e-013 2.01587e-010
-672 210 1.35123e-009 9.53466e-010 4.24803e-009 2.90724e-009 -4.93688e-011 1.375e-010
-672 224 1.41619e-009 9.8634e-010 4.20853e-009 2.89067e-009 -9.78117e-011 7.3413e-011
-672 238 1.49084e-009 1.01571e-009 4.1875e-009 2.86762e-009 -1.39353e-010 1.45928e-011
-672 252 1.51481e-009 9.85373e-010 4.05435e-009 2.72103e-009 -1.49789e-010 -2.17821e-011
-672 266 1.53877e-009 9.55037e-010 3.9212e-009 2.57443e-009 -1.60225e-010 -5.8157e-011
-672 280 1.56274e-009 9.247e-010 3.78804e-009 2.42783e-009 -1.70661e-010 -9.45319e-011
-672 294 1.5867e-009 8.94364e-010 3.65489e-009 2.28124e-009 -1.81097e-010 -1.30907e-010
-672 308 1.61067e-009 8.64027e-010 3.52174e-009 2.13464e-009 -1.91532e-010 -1.67282e-010
-672 322 1.63463e-009 8.33691e-010 3.38859e-009 1.98804e-009 -2.01968e-010 -2.03657e-010
-672 336 1.6586e-009 8.03354e-010 3.25544e-009 1.84145e-009 -2.12404e-010 -2.40032e-010
-672 350 1.68256e-009 7.73018e-010 3.12229e-009 1.69485e-009 -2.2284e-010 -2.76406e-010
-672 364 1.72438e-009 8.8796e-010 2.99014e-009 1.40899e-009 -4.82226e-011 4.65828e-011
-672 378 1.73221e-009 8.81836e-010 2.93594e-009 1.39388e-009 -5.88194e-011 1.83034e-011
-672 392 1.74004e-009 8.75712e-010 2.88174e-009 1.37877e-009 -6.94162e-011 -9.97606e-012
-672 406 1.74786e-009 8.69588e-010 2.82754e-009 1.36367e-009 -8.0013e-011 -3.82555e-011
-672 420 1.75569e-009 8.63464e-010 2.77333e-009 1.34856e-009 -9.06098e-011 -6.65349e-011
-672 434 1.76352e-009 8.5734e-010 2.71913e-009 1.33345e-009 -1.01207e-010 -9.48143e-011
-672 448 1.73543e-009 8.0098e-010 2.60654e-009 1.23326e-009 -1.08145e-010 -1.14841e-010
-672 462 1.71133e-009 7.62176e-010 2.50448e-009 1.16259e-009 -9.79203e-011 -1.03681e-010
-672 476 1.68724e-009 7.23371e-010 2.40242e-009 1.09192e-009 -8.76961e-011 -9.25201e-011
-672 490 1.66315e-009 6.84566e-010 2.30037e-009 1.02125e-009 -7.74719e-011 -8.13595e-011
-672 504 1.63905e-009 6.45762e-010 2.19831e-009 9.50585e-010 -6.72478e-011 -7.0199e-011
-672 518 1.61496e-009 6.06957e-010 2.09625e-009 8.79915e-010 -5.70236e-011 -5.90384e-011
-672 532 1.59086e-009 5.68153e-010 1.99419e-009 8.09246e-010 -4.67994e-011 -4.78778e-011
-672 546 1.56677e-009 5.29348e-010 1.89213e-009 7.38577e-010 -3.65752e-011 -3.67173e-011
-672 560 1.54268e-009 4.90543e-010 1.79007e-009 6.67908e-010 -2.6351e-011 -2.55567e-011
-672 574 1.51858e-009 4.51739e-010 1.68801e-009 5.97239e-010 -1.61268e-011 -1.43961e-011
-672 588 1.49287e-009 4.34995e-010 1.60644e-009 4.64263e-010 -1.14432e-012 -4.07007e-011
-672 602 1.4689e-009 4.19416e-010 1.5551e-009 4.43727e-010 -8.35518e-013 -3.88986e-011
-672 616 1.44493e-009 4.03837e-010 1.50376e-009 4.23191e-010 -5.26719e-013 -3.70966e-011
-672 630 1.42096e-009 3.88257e-010 1.45242e-009 4.02655e-010 -2.1792e-013 -3.52945e-011
-672 644 1.39699e-009 3.72678e-010 1.40109e-009 3.82119e-010 9.08787e-014 -3.34924e-011
-672 658 1.37302e-009 3.57099e-010 1.34975e-009 3.61583e-010 3.99678e-013 -3.16904e-011
-672 672 1.34905e-009 3.41519e-010 1.29841e-009 3.41048e-010 7.08477e-013 -2.98883e-011
-672 686 1.32508e-009 3.2594e-010 1.24707e-009 3.20512e-010 1.01728e-012 -2.80862e-011
-658 -700 -1.27539e-009 -2.84492e-010 1.22394e-009 2.75294e-010 8.92894e-011 6.16514e-011
-658 -686 -1.32165e-009 -3.07614e-010 1.29557e-009 3.01189e-010 8.587e-011 6.39746e-011
-658 -672 -1.36791e-009 -3.30736e-010 1.36719e-009 3.27084e-010 8.24506e-011 6.62978e-011
-658 -658 -1.41417e-009 -3.53859e-010 1.43881e-009 3.5298e-010 7.90312e-011 6.8621e-011
-658 -644 -1.46043e-009 -3.76981e-010 1.51044e-009 3.78875e-010 7.56118e-011 7.09443e-011
-658 -630 -1.45767e-009 -4.44844e-010 1.52751e-009 4.64014e-010 5.78833e-011 6.13824e-011
-658 -616 -1.48322e-009 -4.66725e-010 1.58284e-009 4.87724e-010 4.30175e-011 4.58451e-011
-658 -602 -1.50876e-009 -4.88607e-010 1.63818e-009 5.11434e-010 2.81517e-011 3.03079e-011
-658 -588 -1.5343e-009 -5.10489e-010 1.69351e-009 5.35143e-010 1.32859e-011 1.47706e-011
-658 -574 -1.55985e-009 -5.3237e-010 1.74884e-009 5.58853e-010 -1.57986e-012 -7.66608e-013
-658 -560 -1.58539e-009 -5.54252e-010 1.80418e-009 5.82563e-010 -1.64456e-011 -1.63039e-011
-658 -546 -1.63758e-009 -5.71769e-010 1.85525e-009 6.5965e-010 6.61733e-011 6.80774e-011
-658 -532 -1.66088e-009 -6.12585e-010 1.96886e-009 7.52253e-010 5.89039e-011 5.52307e-011
-658 -518 -1.68418e-009 -6.53401e-010 2.08248e-009 8.44856e-010 5.16344e-011 4.2384e-011
-658 -504 -1.70747e-009 -6.94217e-010 2.19609e-009 9.37459e-010 4.43649e-011 2.95374e-011
-658 -490 -1.73077e-009 -7.35032e-010 2.30971e-009 1.03006e-009 3.70954e-011 1.66907e-011
-658 -476 -1.75407e-009 -7.75848e-010 2.42332e-009 1.12267e-009 2.98259e-011 3.844e-012
-658 -462 -1.77736e-009 -8.16664e-010 2.53694e-009 1.21527e-009 2.25565e-011 -9.00268e-012
-658 -448 -1.80066e-009 -8.5748e-010 2.65055e-009 1.30787e-009 1.5287e-011 -2.18494e-011
-658 -434 -1.85499e-009 -9.32741e-010 2.81621e-009 1.45781e-009 2.37964e-011 -1.68778e-011
-658 -420 -1.84472e-009 -9.48591e-010 2.88463e-009 1.51532e-009 -6.03423e-012 -4.46594e-011
-658 -406 -1.83445e-009 -9.64441e-010 2.95305e-009 1.57284e-009 -3.58648e-011 -7.24409e-011
-658 -392 -1.82418e-009 -9.80292e-010 3.02147e-009 1.63036e-009 -6.56954e-011 -1.00222e-010
-658 -378 -1.81391e-009 -9.96142e-010 3.08989e-009 1.68787e-009 -9.5526e-011 -1.28004e-010
-658 -364 -1.80364e-009 -1.01199e-009 3.15831e-009 1.74539e-009 -1.25357e-010 -1.55786e-010
-658 -350 -1.83534e-009 -1.01242e-009 3.18612e-009 1.85926e-009 -1.74555e-011 8.77707e-011
-658 -336 -1.80109e-009 -1.03541e-009 3.32289e-009 2.00783e-009 -3.81229e-012 7.6507e-011
-658 -322 -1.76683e-009 -1.0584e-009 3.45966e-009 2.1564e-009 9.83094e-012 6.52432e-011
-658 -308 -1.73258e-009 -1.08139e-009 3.59643e-009 2.30497e-009 2.34742e-011 5.39795e-011
-658 -294 -1.69833e-009 -1.10437e-009 3.7332e-009 2.45354e-009 3.71174e-011 4.27157e-011
-658 -280 -1.66407e-009 -1.12736e-009 3.86997e-009 2.6021e-009 5.07606e-011 3.1452e-011
-658 -266 -1.62982e-009 -1.15035e-009 4.00674e-009 2.75067e-009 6.44039e-011 2.01882e-011
-658 -252 -1.59556e-009 -1.17334e-009 4.14352e-009 2.89924e-009 7.80471e-011 8.92448e-012